                               Psi4 1.1 release

  ==> Input File <==

--------------------------------------------------------------------------
#This is a test psi4 input file
#Comments are lines starting with #

memory 600 mb

molecule h2 {
  H 0 0 0
  H 0 0 1.0
}

set basis 3-21G
set step_type nr
set intrafrag_step_limit 0.1
optimize('scf', g_convergence=10E-6)
--------------------------------------------------------------------------

    Molecular point group: d2h
  Charge       = 0
  Multiplicity = 1
  Basis Set: 3-21G
    Blend: 3-21G
  Basis Set: (3-21G AUX)
    Blend: DEF2-SVP-JKFIT
  @DF-RHF Final Energy:    -1.09139222652423
    Total Energy =                         -1.0913922265242328
    Molecular point group: d2h
  Basis Set: 3-21G
    Blend: 3-21G
  Basis Set: (3-21G AUX)
    Blend: DEF2-SVP-JKFIT
  Basis Set: 3-21G
    Blend: 3-21G
  Basis Set: (3-21G AUX)
    Blend: DEF2-SVP-JKFIT
  @DF-RHF Final Energy:    -1.10080766178785
    Total Energy =                         -1.1008076617878464
  Basis Set: 3-21G
    Blend: 3-21G
  Basis Set: (3-21G AUX)
    Blend: DEF2-SVP-JKFIT
  Basis Set: 3-21G
    Blend: 3-21G
  @DF-RHF Final Energy:    -1.12107011104022
    Total Energy =                         -1.1210701110402150
  @DF-RHF Final Energy:    -1.11914139032439
    Total Energy =                         -1.1191413903243905
  @DF-RHF Final Energy:    -1.12287751568623
    Total Energy =                         -1.1228775156862256
  @DF-RHF Final Energy:    -1.12296236859264
    Total Energy =                         -1.1229623685926375
  Basis Set: (3-21G AUX)
    Blend: DEF2-SVP-JKFIT
  Basis Set: 3-21G
    Blend: 3-21G
  Basis Set: (3-21G AUX)
    Blend: DEF2-SVP-JKFIT
  @DF-RHF Final Energy:    -1.12296522221920
    Total Energy =                         -1.1229652222191975
  Basis Set: 3-21G
    Blend: 3-21G
  Basis Set: (3-21G AUX)
    Blend: DEF2-SVP-JKFIT
  Charge       = 0
  Multiplicity = 1
  Basis Set: 3-21G
    Blend: 3-21G
  Basis Set: (3-21G AUX)
    Blend: DEF2-SVP-JKFIT

    Orbital Energies (a.u.)
    -----------------------

    Doubly Occupied:

       1Ag    -0.594242

  @DF-RHF Final Energy:    -1.12296533602582

   => Energetics <=

    Nuclear Repulsion Energy =              0.7201375097932313
    One-Electron Energy =                  -2.4977208686704571
    Two-Electron Energy =                   0.6546180228514057
    DFT Exchange-Correlation Energy =       0.0000000000000000
    Empirical Dispersion Energy =           0.0000000000000000
    PCM Polarization Energy =               0.0000000000000000
    EFP Energy =                            0.0000000000000000
    Total Energy =                         -1.1229653360258198
    Molecular point group: d2h
  Basis Set: 3-21G
    Blend: 3-21G
  Basis Set: (3-21G AUX)
    Blend: DEF2-SVP-JKFIT

  -Total Gradient:
     Atom            X                  Y                   Z
    ------   -----------------  -----------------  -----------------
       1       -0.000000000000    -0.000000000000    -0.000010801103
       2        0.000000000000     0.000000000000     0.000010801103

  **** Optimization is complete! (in 8 steps) ****
    Final optimized geometry and variables:
    Molecular point group: d2h

    Geometry (in Angstrom), charge = 0, multiplicity = 1:

    H            0.000000000000     0.000000000000    -0.367414001766
    H            0.000000000000     0.000000000000     0.367414001766

*** Psi4 exiting successfully. Buy a developer a beer!
